# vtk DataFile Version 3.0
Mesh_1
ASCII
DATASET UNSTRUCTURED_GRID
POINTS 4540 float
-50 -50 0
-50 50 0
50 -50 0
50 50 0
-50 -48.75 0
-50 -47.5 0
-50 -46.25 0
-50 -45 0
-50 -43.75 0
-50 -42.5 0
-50 -41.25 0
-50 -40 0
-50 -38.75 0
-50 -37.5 0
-50 -36.25 0
-50 -35 0
-50 -33.75 0
-50 -32.5 0
-50 -31.25 0
-50 -30 0
-50 -28.75 0
-50 26.25 0
-50 27.5 0
-50 28.75 0
-50 30 0
-50 31.25 0
-50 32.5 0
-50 33.75 0
-50 35 0
-50 36.25 0
-50 37.5 0
-50 38.75 0
-50 40 0
-50 41.25 0
-50 42.5 0
-50 43.75 0
-50 45 0
-50 46.25 0
-50 47.5 0
-50 48.75 0
-48.75 -50 0
-47.5 -50 0
-46.25 -50 0
-45 -50 0
-43.75 -50 0
-42.5 -50 0
-41.25 -50 0
-40 -50 0
-38.75 -50 0
-37.5 -50 0
-36.25 -50 0
-35 -50 0
-33.75 -50 0
-32.5 -50 0
-31.25 -50 0
-30 -50 0
-28.75 -50 0
-27.5 -50 0
-26.25 -50 0
-25 -50 0
-23.75 -50 0
-22.5 -50 0
-21.25 -50 0
-20 -50 0
-18.75 -50 0
-17.5 -50 0
-16.25 -50 0
-15 -50 0
-13.75 -50 0
-12.5 -50 0
-11.25 -50 0
-10 -50 0
-8.75 -50 0
-7.5 -50 0
-6.25 -50 0
-5 -50 0
-3.75 -50 0
-2.5 -50 0
-1.25 -50 0
0 -50 0
1.25 -50 0
2.5 -50 0
3.75 -50 0
5 -50 0
6.25 -50 0
7.5 -50 0
8.75 -50 0
10 -50 0
11.25 -50 0
12.5 -50 0
13.75 -50 0
15 -50 0
16.25 -50 0
17.5 -50 0
18.75 -50 0
20 -50 0
21.25 -50 0
22.5 -50 0
23.75 -50 0
25 -50 0
26.25 -50 0
27.5 -50 0
28.75 -50 0
30 -50 0
31.25 -50 0
32.5 -50 0
33.75 -50 0
35 -50 0
36.25 -50 0
37.5 -50 0
38.75 -50 0
40 -50 0
41.25 -50 0
42.5 -50 0
43.75 -50 0
45 -50 0
46.25 -50 0
47.5 -50 0
48.75 -50 0
50 -48.75 0
50 -47.5 0
50 -46.25 0
50 -45 0
50 -43.75 0
50 -42.5 0
50 -41.25 0
50 -40 0
50 -38.75 0
50 -37.5 0
50 -36.25 0
50 -35 0
50 -33.75 0
50 -32.5 0
50 -31.25 0
50 -30 0
50 -28.75 0
50 26.25 0
50 27.5 0
50 28.75 0
50 30 0
50 31.25 0
50 32.5 0
50 33.75 0
50 35 0
50 36.25 0
50 37.5 0
50 38.75 0
50 40 0
50 41.25 0
50 42.5 0
50 43.75 0
50 45 0
50 46.25 0
50 47.5 0
50 48.75 0
-48.75 50 0
-47.5 50 0
-46.25 50 0
-45 50 0
-43.75 50 0
-42.5 50 0
-41.25 50 0
-40 50 0
-38.75 50 0
-37.5 50 0
-36.25 50 0
-35 50 0
-33.75 50 0
-32.5 50 0
-31.25 50 0
-30 50 0
-28.75 50 0
-27.5 50 0
-26.25 50 0
-25 50 0
-23.75 50 0
-22.5 50 0
-21.25 50 0
-20 50 0
-18.75 50 0
-17.5 50 0
-16.25 50 0
-15 50 0
-13.75 50 0
-12.5 50 0
-11.25 50 0
-10 50 0
-8.75 50 0
-7.5 50 0
-6.25 50 0
-5 50 0
-3.75 50 0
-2.5 50 0
-1.25 50 0
0 50 0
1.25 50 0
2.5 50 0
3.75 50 0
5 50 0
6.25 50 0
7.5 50 0
8.75 50 0
10 50 0
11.25 50 0
12.5 50 0
13.75 50 0
15 50 0
16.25 50 0
17.5 50 0
18.75 50 0
20 50 0
21.25 50 0
22.5 50 0
23.75 50 0
25 50 0
26.25 50 0
27.5 50 0
28.75 50 0
30 50 0
31.25 50 0
32.5 50 0
33.75 50 0
35 50 0
36.25 50 0
37.5 50 0
38.75 50 0
40 50 0
41.25 50 0
42.5 50 0
43.75 50 0
45 50 0
46.25 50 0
47.5 50 0
48.75 50 0
-48.75 48.75 0
-47.5 48.75 0
-46.25 48.75 0
-45 48.75 0
-43.75 48.75 0
-42.5 48.75 0
-41.25 48.75 0
-40 48.75 0
-38.75 48.75 0
-37.5 48.75 0
-36.25 48.75 0
-35 48.75 0
-33.75 48.75 0
-32.5 48.75 0
-31.25 48.75 0
-30 48.75 0
-28.75 48.75 0
-27.5 48.75 0
-26.25 48.75 0
-25 48.75 0
-23.75 48.75 0
-22.5 48.75 0
-21.25 48.75 0
-20 48.75 0
-18.75 48.75 0
-17.5 48.75 0
-16.25 48.75 0
-15 48.75 0
-13.75 48.75 0
-12.5 48.75 0
-11.25 48.75 0
-10 48.75 0
-8.75 48.75 0
-7.5 48.75 0
-6.25 48.75 0
-5 48.75 0
-3.75 48.75 0
-2.5 48.75 0
-1.25 48.75 0
0 48.75 0
1.25 48.75 0
2.5 48.75 0
3.75 48.75 0
5 48.75 0
6.25 48.75 0
7.5 48.75 0
8.75 48.75 0
10 48.75 0
11.25 48.75 0
12.5 48.75 0
13.75 48.75 0
15 48.75 0
16.25 48.75 0
17.5 48.75 0
18.75 48.75 0
20 48.75 0
21.25 48.75 0
22.5 48.75 0
23.75 48.75 0
25 48.75 0
26.25 48.75 0
27.5 48.75 0
28.75 48.75 0
30 48.75 0
31.25 48.75 0
32.5 48.75 0
33.75 48.75 0
35 48.75 0
36.25 48.75 0
37.5 48.75 0
38.75 48.75 0
40 48.75 0
41.25 48.75 0
42.5 48.75 0
43.75 48.75 0
45 48.75 0
46.25 48.75 0
47.5 48.75 0
48.75 48.75 0
-48.75 47.5 0
-47.5 47.5 0
-46.25 47.5 0
-45 47.5 0
-43.75 47.5 0
-42.5 47.5 0
-41.25 47.5 0
-40 47.5 0
-38.75 47.5 0
-37.5 47.5 0
-36.25 47.5 0
-35 47.5 0
-33.75 47.5 0
-32.5 47.5 0
-31.25 47.5 0
-30 47.5 0
-28.75 47.5 0
-27.5 47.5 0
-26.25 47.5 0
-25 47.5 0
-23.75 47.5 0
-22.5 47.5 0
-21.25 47.5 0
-20 47.5 0
-18.75 47.5 0
-17.5 47.5 0
-16.25 47.5 0
-15 47.5 0
-13.75 47.5 0
-12.5 47.5 0
-11.25 47.5 0
-10 47.5 0
-8.75 47.5 0
-7.5 47.5 0
-6.25 47.5 0
-5 47.5 0
-3.75 47.5 0
-2.5 47.5 0
-1.25 47.5 0
0 47.5 0
1.25 47.5 0
2.5 47.5 0
3.75 47.5 0
5 47.5 0
6.25 47.5 0
7.5 47.5 0
8.75 47.5 0
10 47.5 0
11.25 47.5 0
12.5 47.5 0
13.75 47.5 0
15 47.5 0
16.25 47.5 0
17.5 47.5 0
18.75 47.5 0
20 47.5 0
21.25 47.5 0
22.5 47.5 0
23.75 47.5 0
25 47.5 0
26.25 47.5 0
27.5 47.5 0
28.75 47.5 0
30 47.5 0
31.25 47.5 0
32.5 47.5 0
33.75 47.5 0
35 47.5 0
36.25 47.5 0
37.5 47.5 0
38.75 47.5 0
40 47.5 0
41.25 47.5 0
42.5 47.5 0
43.75 47.5 0
45 47.5 0
46.25 47.5 0
47.5 47.5 0
48.75 47.5 0
-48.75 46.25 0
-47.5 46.25 0
-46.25 46.25 0
-45 46.25 0
-43.75 46.25 0
-42.5 46.25 0
-41.25 46.25 0
-40 46.25 0
-38.75 46.25 0
-37.5 46.25 0
-36.25 46.25 0
-35 46.25 0
-33.75 46.25 0
-32.5 46.25 0
-31.25 46.25 0
-30 46.25 0
-28.75 46.25 0
-27.5 46.25 0
-26.25 46.25 0
-25 46.25 0
-23.75 46.25 0
-22.5 46.25 0
-21.25 46.25 0
-20 46.25 0
-18.75 46.25 0
-17.5 46.25 0
-16.25 46.25 0
-15 46.25 0
-13.75 46.25 0
-12.5 46.25 0
-11.25 46.25 0
-10 46.25 0
-8.75 46.25 0
-7.5 46.25 0
-6.25 46.25 0
-5 46.25 0
-3.75 46.25 0
-2.5 46.25 0
-1.25 46.25 0
0 46.25 0
1.25 46.25 0
2.5 46.25 0
3.75 46.25 0
5 46.25 0
6.25 46.25 0
7.5 46.25 0
8.75 46.25 0
10 46.25 0
11.25 46.25 0
12.5 46.25 0
13.75 46.25 0
15 46.25 0
16.25 46.25 0
17.5 46.25 0
18.75 46.25 0
20 46.25 0
21.25 46.25 0
22.5 46.25 0
23.75 46.25 0
25 46.25 0
26.25 46.25 0
27.5 46.25 0
28.75 46.25 0
30 46.25 0
31.25 46.25 0
32.5 46.25 0
33.75 46.25 0
35 46.25 0
36.25 46.25 0
37.5 46.25 0
38.75 46.25 0
40 46.25 0
41.25 46.25 0
42.5 46.25 0
43.75 46.25 0
45 46.25 0
46.25 46.25 0
47.5 46.25 0
48.75 46.25 0
-48.75 45 0
-47.5 45 0
-46.25 45 0
-45 45 0
-43.75 45 0
-42.5 45 0
-41.25 45 0
-40 45 0
-38.75 45 0
-37.5 45 0
-36.25 45 0
-35 45 0
-33.75 45 0
-32.5 45 0
-31.25 45 0
-30 45 0
-28.75 45 0
-27.5 45 0
-26.25 45 0
-25 45 0
-23.75 45 0
-22.5 45 0
-21.25 45 0
-20 45 0
-18.75 45 0
-17.5 45 0
-16.25 45 0
-15 45 0
-13.75 45 0
-12.5 45 0
-11.25 45 0
-10 45 0
-8.75 45 0
-7.5 45 0
-6.25 45 0
-5 45 0
-3.75 45 0
-2.5 45 0
-1.25 45 0
0 45 0
1.25 45 0
2.5 45 0
3.75 45 0
5 45 0
6.25 45 0
7.5 45 0
8.75 45 0
10 45 0
11.25 45 0
12.5 45 0
13.75 45 0
15 45 0
16.25 45 0
17.5 45 0
18.75 45 0
20 45 0
21.25 45 0
22.5 45 0
23.75 45 0
25 45 0
26.25 45 0
27.5 45 0
28.75 45 0
30 45 0
31.25 45 0
32.5 45 0
33.75 45 0
35 45 0
36.25 45 0
37.5 45 0
38.75 45 0
40 45 0
41.25 45 0
42.5 45 0
43.75 45 0
45 45 0
46.25 45 0
47.5 45 0
48.75 45 0
-48.75 43.75 0
-47.5 43.75 0
-46.25 43.75 0
-45 43.75 0
-43.75 43.75 0
-42.5 43.75 0
-41.25 43.75 0
-40 43.75 0
-38.75 43.75 0
-37.5 43.75 0
-36.25 43.75 0
-35 43.75 0
-33.75 43.75 0
-32.5 43.75 0
-31.25 43.75 0
-30 43.75 0
-28.75 43.75 0
-27.5 43.75 0
-26.25 43.75 0
-25 43.75 0
-23.75 43.75 0
-22.5 43.75 0
-21.25 43.75 0
-20 43.75 0
-18.75 43.75 0
-17.5 43.75 0
-16.25 43.75 0
-15 43.75 0
-13.75 43.75 0
-12.5 43.75 0
-11.25 43.75 0
-10 43.75 0
-8.75 43.75 0
-7.5 43.75 0
-6.25 43.75 0
-5 43.75 0
-3.75 43.75 0
-2.5 43.75 0
-1.25 43.75 0
0 43.75 0
1.25 43.75 0
2.5 43.75 0
3.75 43.75 0
5 43.75 0
6.25 43.75 0
7.5 43.75 0
8.75 43.75 0
10 43.75 0
11.25 43.75 0
12.5 43.75 0
13.75 43.75 0
15 43.75 0
16.25 43.75 0
17.5 43.75 0
18.75 43.75 0
20 43.75 0
21.25 43.75 0
22.5 43.75 0
23.75 43.75 0
25 43.75 0
26.25 43.75 0
27.5 43.75 0
28.75 43.75 0
30 43.75 0
31.25 43.75 0
32.5 43.75 0
33.75 43.75 0
35 43.75 0
36.25 43.75 0
37.5 43.75 0
38.75 43.75 0
40 43.75 0
41.25 43.75 0
42.5 43.75 0
43.75 43.75 0
45 43.75 0
46.25 43.75 0
47.5 43.75 0
48.75 43.75 0
-48.75 42.5 0
-47.5 42.5 0
-46.25 42.5 0
-45 42.5 0
-43.75 42.5 0
-42.5 42.5 0
-41.25 42.5 0
-40 42.5 0
-38.75 42.5 0
-37.5 42.5 0
-36.25 42.5 0
-35 42.5 0
-33.75 42.5 0
-32.5 42.5 0
-31.25 42.5 0
-30 42.5 0
-28.75 42.5 0
-27.5 42.5 0
-26.25 42.5 0
-25 42.5 0
-23.75 42.5 0
-22.5 42.5 0
-21.25 42.5 0
-20 42.5 0
-18.75 42.5 0
-17.5 42.5 0
-16.25 42.5 0
-15 42.5 0
-13.75 42.5 0
-12.5 42.5 0
-11.25 42.5 0
-10 42.5 0
-8.75 42.5 0
-7.5 42.5 0
-6.25 42.5 0
-5 42.5 0
-3.75 42.5 0
-2.5 42.5 0
-1.25 42.5 0
0 42.5 0
1.25 42.5 0
2.5 42.5 0
3.75 42.5 0
5 42.5 0
6.25 42.5 0
7.5 42.5 0
8.75 42.5 0
10 42.5 0
11.25 42.5 0
12.5 42.5 0
13.75 42.5 0
15 42.5 0
16.25 42.5 0
17.5 42.5 0
18.75 42.5 0
20 42.5 0
21.25 42.5 0
22.5 42.5 0
23.75 42.5 0
25 42.5 0
26.25 42.5 0
27.5 42.5 0
28.75 42.5 0
30 42.5 0
31.25 42.5 0
32.5 42.5 0
33.75 42.5 0
35 42.5 0
36.25 42.5 0
37.5 42.5 0
38.75 42.5 0
40 42.5 0
41.25 42.5 0
42.5 42.5 0
43.75 42.5 0
45 42.5 0
46.25 42.5 0
47.5 42.5 0
48.75 42.5 0
-48.75 41.25 0
-47.5 41.25 0
-46.25 41.25 0
-45 41.25 0
-43.75 41.25 0
-42.5 41.25 0
-41.25 41.25 0
-40 41.25 0
-38.75 41.25 0
-37.5 41.25 0
-36.25 41.25 0
-35 41.25 0
-33.75 41.25 0
-32.5 41.25 0
-31.25 41.25 0
-30 41.25 0
-28.75 41.25 0
-27.5 41.25 0
-26.25 41.25 0
-25 41.25 0
-23.75 41.25 0
-22.5 41.25 0
-21.25 41.25 0
-20 41.25 0
-18.75 41.25 0
-17.5 41.25 0
-16.25 41.25 0
-15 41.25 0
-13.75 41.25 0
-12.5 41.25 0
-11.25 41.25 0
-10 41.25 0
-8.75 41.25 0
-7.5 41.25 0
-6.25 41.25 0
-5 41.25 0
-3.75 41.25 0
-2.5 41.25 0
-1.25 41.25 0
0 41.25 0
1.25 41.25 0
2.5 41.25 0
3.75 41.25 0
5 41.25 0
6.25 41.25 0
7.5 41.25 0
8.75 41.25 0
10 41.25 0
11.25 41.25 0
12.5 41.25 0
[...]
POINT_DATA 4540
SCALARS Temperature float 1
LOOKUP_TABLE default
50
300
50
300
150
150
150
150
150
150
150
150
150
150
150
150
150
150
150
150
150
150
150
150
150
150
150
150
150
150
150
150
150
150
150
150
150
150
150
150
50
50
50
50
50
50
50
50
50
50
50
50
50
50
50
50
50
50
50
50
50
50
50
50
50
50
50
50
50
50
50
50
50
50
50
50
50
50
50
50
50
50
50
50
50
50
50
50
50
50
50
50
50
50
50
50
50
50
50
50
50
50
50
50
50
50
50
50
50
50
50
50
50
50
50
50
50
50
50
150
150
150
150
150
150
150
150
150
150
150
150
150
150
150
150
150
150
150
150
150
150
150
150
150
150
150
150
150
150
150
150
150
150
150
150
300
300
300
300
300
300
300
300
300
300
300
300
300
300
300
300
300
300
300
300
300
300
300
300
300
300
300
300
300
300
300
300
300
300
300
300
300
300
300
300
300
300
300
300
300
300
300
300
300
300
300
300
300
300
300
300
300
300
300
300
300
300
300
300
300
300
300
300
300
300
300
300
300
300
300
300
300
300
300
224.455
253.569
266.997
274.138
278.373
281.086
282.918
284.197
285.107
285.763
286.242
286.602
286.884
287.12
287.331
287.527
287.713
287.886
288.041
288.172
288.275
288.348
288.392
288.409
288.405
288.384
288.352
288.315
288.277
288.242
288.211
288.186
288.167
288.156
288.151
288.154
288.164
288.182
288.207
288.24
288.282
288.331
288.388
288.452
288.521
288.595
288.67
288.746
288.818
288.883
288.94
288.984
289.014
289.027
289.022
288.997
288.951
288.884
288.794
288.683
288.548
288.39
288.206
287.995
287.75
287.467
287.134
286.738
286.258
285.662
284.907
283.924
282.604
280.763
278.071
273.88
266.8
253.44
224.394
194.258
222.836
240.296
251.194
258.273
263.053
266.381
268.747
270.453
271.693
272.608
273.3
273.848
274.31
274.725
275.113
275.481
275.824
276.132
276.394
276.602
276.751
276.842
276.881
276.877
276.841
276.784
276.715
276.643
276.575
276.516
276.467
276.432
276.409
276.401
276.406
276.426
276.46
276.509
276.573
276.652
276.747
276.856
276.978
277.111
277.252
277.397
277.541
277.679
277.804
277.913
277.998
278.056
278.083
278.074
278.027
277.94
277.813
277.642
277.429
277.17
276.865
276.51
276.1
275.626
275.075
274.429
273.661
272.732
271.588
270.147
268.291
265.836
262.483
257.737
250.738
239.95
222.613
194.155
179.763
203.254
220.198
232.114
240.513
246.504
250.83
253.985
256.298
258.003
259.275
260.25
261.032
261.699
262.304
262.873
263.415
263.921
264.377
264.766
265.077
265.302
265.443
265.508
265.509
265.463
265.384
265.288
265.186
265.089
265.004
264.934
264.883
264.85
264.838
264.845
264.872
264.922
264.992
265.084
265.197
265.332
265.486
265.66
265.849
266.049
266.254
266.458
266.654
266.834
266.989
267.112
267.197
267.237
267.229
267.167
267.048
266.871
266.633
266.333
265.967
265.534
265.027
264.44
263.761
262.971
262.046
260.949
259.63
258.018
256.013
253.47
250.173
245.797
239.842
231.546
219.775
202.991
179.647
171.583
190.293
205.219
216.652
225.265
231.723
236.56
240.183
242.893
244.925
246.464
247.661
248.637
249.482
250.255
250.989
251.688
252.343
252.934
253.439
253.844
254.139
254.327
254.416
254.424
254.369
254.272
254.151
254.022
253.899
253.79
253.7
253.634
253.588
253.563
253.568
253.604
253.669
253.763
253.882
254.027
254.197
254.391
254.609
254.845
255.095
255.352
255.608
255.854
256.08
256.276
256.435
256.547
256.604
256.602
256.534
256.396
256.185
255.897
255.529
255.079
254.541
253.909
253.174
252.321
251.329
250.169
248.8
247.165
245.189
242.766
239.749
235.929
231.012
224.582
216.08
204.806
190.051
171.487
166.354
181.242
193.895
204.196
212.376
218.776
223.737
227.553
230.47
232.699
234.417
235.778
236.906
237.896
238.811
239.683
240.516
241.296
241.999
242.6
243.08
243.431
243.654
243.76
243.768
243.702
243.584
243.438
243.283
243.134
243.002
242.894
242.794
242.707
242.656
242.657
242.71
242.804
242.931
243.085
243.264
243.469
243.7
243.955
244.231
244.523
244.823
245.123
245.411
245.678
245.913
246.106
246.247
246.327
246.34
246.279
246.137
245.91
245.593
245.182
244.672
244.057
243.33
242.479
241.489
240.338
238.993
237.414
235.545
233.312
230.617
227.327
223.266
218.194
211.805
203.73
193.582
181.085
166.312
162.71
174.619
185.172
194.153
201.587
207.619
212.441
216.247
219.224
221.544
223.369
224.842
226.083
227.187
228.213
229.192
230.125
230.996
231.777
232.442
232.97
233.351
233.587
233.693
233.689
233.602
233.458
233.283
233.098
232.922
232.766
232.598
232.409
232.244
232.157
232.17
232.266
232.418
232.602
232.806
233.029
233.272
233.539
233.828
234.139
234.466
234.803
235.139
235.465
235.77
236.042
236.27
236.445
236.557
236.598
236.558
236.431
236.21
235.888
235.46
234.919
234.258
233.467
232.536
231.447
230.179
228.701
226.975
224.949
222.559
219.72
216.326
212.236
207.275
201.234
193.885
185.032
174.599
162.749
160.032
169.614
178.359
186.056
192.643
198.158
202.691
206.36
209.297
211.636
213.515
215.059
216.381
217.565
218.669
219.718
220.712
221.631
222.448
223.135
223.67
224.046
224.266
224.346
224.31
224.186
224.003
223.79
223.57
223.362
223.129
222.825
222.49
222.23
222.123
222.179
222.355
222.597
222.865
223.139
223.418
223.706
224.01
224.333
224.675
225.033
225.402
225.771
226.132
226.473
226.784
227.053
227.271
227.426
227.51
227.511
227.421
227.23
226.93
226.513
225.971
225.294
224.473
223.496
222.346
221.004
219.442
217.625
215.512
213.048
210.169
206.792
202.818
198.124
192.578
186.047
178.441
169.762
160.166
158.008
165.768
173.01
179.557
185.319
190.276
194.457
197.926
200.767
203.081
204.977
206.564
207.938
209.174
210.321
211.401
212.411
213.332
214.134
214.793
215.289
215.616
215.78
215.801
215.704
215.522
215.284
215.02
214.756
214.468
214.085
213.594
213.105
212.768
212.669
212.796
213.075
213.426
213.792
214.148
214.491
214.828
215.172
215.528
215.9
216.287
216.685
217.086
217.482
217.862
218.217
218.535
218.807
219.021
219.167
219.232
219.203
219.071
218.822
218.446
217.933
217.272
216.453
215.464
214.289
212.912
211.309
209.452
207.307
204.835
201.987
198.709
194.932
190.579
185.569
179.831
173.329
166.09
158.237
156.464
162.802
168.826
174.394
179.414
183.84
187.665
190.914
193.636
195.903
197.797
199.406
200.809
202.069
203.226
204.297
205.277
206.148
206.883
207.46
207.863
208.092
208.156
208.078
207.888
207.62
207.306
206.976
206.634
206.219
205.66
204.999
204.394
204.015
203.942
204.14
204.514
204.964
205.422
205.855
206.26
206.647
207.029
207.418
207.82
208.235
208.662
209.096
209.529
209.953
210.359
210.738
211.08
211.372
211.603
211.757
211.82
211.776
211.609
211.306
210.853
210.24
209.454
208.484
207.318
205.94
204.333
202.475
200.342
197.907
195.139
192.004
188.46
184.462
179.966
174.938
169.366
163.282
156.777
155.292
160.532
165.589
170.354
174.742
178.698
182.196
185.234
187.837
190.048
191.929
193.545
194.957
196.215
197.351
198.376
199.283
200.055
200.671
201.11
201.366
201.442
201.355
201.135
200.815
200.431
200.018
199.599
199.151
198.601
197.903
197.135
196.473
196.085
196.034
196.277
196.708
197.221
197.741
198.232
198.688
199.117
199.536
199.955
200.385
200.828
201.285
201.754
202.229
202.704
203.172
203.626
204.055
204.449
204.791
205.066
205.252
205.331
205.28
205.083
204.723
204.186
203.462
202.541
201.411
200.062
198.48
196.652
194.562
192.195
189.533
186.559
183.251
179.589
175.551
171.124
166.31
161.137
155.668
154.412
158.817
163.123
167.249
171.12
174.682
177.897
180.749
183.242
185.4
187.261
188.872
190.277
191.512
192.599
193.543
194.338
194.967
195.412
195.661
195.712
195.58
195.29
194.88
194.39
193.86
193.323
192.793
192.234
191.58
190.807
190.006
189.343
188.964
188.921
189.169
189.609
190.139
190.684
191.205
191.692
192.153
192.6
193.047
193.503
193.974
194.463
194.97
195.492
196.026
196.568
197.112
197.65
198.17
198.655
199.085
199.434
199.674
199.777
199.72
199.484
199.053
198.418
197.57
196.501
195.203
193.67
191.894
189.867
187.583
185.037
182.224
179.138
175.773
172.123
168.188
163.975
159.507
154.827
153.763
157.544
161.28
164.91
168.372
171.615
174.597
177.292
179.689
181.798
183.636
185.234
186.617
187.811
188.826
189.663
190.313
190.76
190.99
190.996
190.787
190.388
189.838
189.188
188.487
187.778
187.094
186.44
185.782
185.062
184.274
183.498
182.871
182.512
182.463
182.685
183.094
183.601
184.136
184.66
185.16
185.64
186.108
186.578
187.058
187.557
188.079
188.627
189.201
189.803
190.43
191.08
191.747
192.422
193.085
193.712
194.268
194.714
195.012
195.132
195.052
194.754
194.231
193.476
192.486
191.257
189.788
188.077
186.124
183.931
181.501
178.838
175.948
172.834
169.501
165.956
162.209
158.279
154.195
153.294
156.617
159.929
163.184
166.331
169.324
172.119
174.686
177.004
179.068
180.882
182.458
183.81
184.948
185.875
186.585
187.065
187.299
187.274
186.99
186.463
185.734
184.862
183.917
182.962
182.044
181.194
180.413
179.666
178.911
178.143
177.423
176.853
176.52
176.458
176.639
176.997
177.457
177.96
178.469
178.968
179.456
179.939
180.426
180.929
181.454
182.009
182.6
183.23
183.905
184.626
185.396
186.214
187.073
187.954
188.827
189.644
190.349
190.891
191.227
191.333
191.192
190.799
190.152
189.253
188.104
186.708
185.069
183.194
181.091
178.769
176.24
173.516
170.608
167.528
164.285
160.892
157.365
153.725
152.962
155.958
158.961
161.938
164.848
167.649
170.3
172.765
175.018
177.042
178.83
180.38
181.692
182.767
183.596
184.168
184.463
184.462
184.152
183.532
182.627
181.495
180.226
178.923
177.67
176.518
175.49
174.58
173.755
172.98
172.245
171.589
171.08
170.778
170.707
170.848
171.151
171.56
172.024
172.51
172.999
173.488
173.98
174.481
175.003
175.553
176.14
176.773
177.46
178.21
179.03
179.929
180.914
181.985
183.128
184.307
185.456
186.488
187.327
187.921
188.241
188.276
188.026
187.496
186.694
185.628
184.308
182.743
180.944
178.924
176.699
174.284
171.696
168.952
166.067
163.053
159.924
156.695
153.38
152.733
155.499
158.284
161.061
163.798
166.456
168.997
171.383
173.583
175.573
177.334
178.855
180.125
181.133
181.863
182.295
182.402
182.157
181.54
180.544
179.196
177.569
175.801
174.063
172.468
171.064
169.858
168.826
167.935
167.145
166.444
165.847
165.395
165.125
165.053
165.165
165.425
165.79
166.218
166.68
167.158
167.645
168.142
168.654
169.191
169.762
170.379
171.051
171.792
172.612
173.527
174.556
175.715
177.021
178.473
180.035
181.614
183.062
184.264
185.156
185.713
185.935
185.832
185.42
184.714
183.73
182.482
180.985
179.255
177.309
175.165
172.844
170.365
167.747
165.008
162.164
159.228
156.212
153.131
152.58
155.193
157.827
160.466
163.08
165.636
168.097
170.423
172.581
174.54
176.276
177.768
178.997
179.942
180.581
180.882
180.812
180.331
179.403
178.002
176.137
173.888
171.461
169.187
167.213
165.56
164.193
163.063
162.12
161.324
160.652
160.106
159.704
159.467
159.403
159.501
159.733
160.067
160.469
160.913
161.381
161.865
162.364
162.884
163.433
164.021
164.661
165.366
166.15
167.03
168.027
169.17
170.494
172.041
173.844
175.892
178.056
180.047
181.686
182.91
183.715
184.122
184.16
183.857
183.239
182.327
181.142
179.705
178.033
176.147
174.069
171.821
169.424
166.9
164.268
161.544
158.743
155.877
152.958
152.486
155.001
157.54
160.089
162.622
165.109
167.513
169.797
171.922
173.857
175.571
177.037
178.231
179.124
179.687
179.881
179.662
178.976
177.761
175.953
173.505
170.444
167.05
164.108
161.752
159.891
158.413
157.226
156.261
155.472
154.831
154.329
153.972
153.769
153.72
153.816
154.037
154.354
154.74
155.172
155.633
156.115
156.615
157.139
157.695
158.294
158.95
159.676
160.489
161.409
162.461
163.684
165.133
166.89
169.059
171.725
174.771
177.488
179.638
181.207
182.247
182.82
182.978
182.765
182.217
181.363
180.228
178.836
177.208
175.368
173.338
171.142
168.803
166.343
163.783
161.139
158.427
155.659
152.846
152.437
154.901
157.39
159.889
162.377
164.823
167.193
169.448
171.552
173.469
175.165
176.612
177.78
178.638
179.149
179.271
178.951
178.12
176.689
174.538
171.499
167.38
162.259
158.54
155.905
153.96
152.466
151.287
150.342
149.583
148.98
148.522
148.207
148.037
148.01
148.115
148.335
148.647
149.026
149.452
149.909
150.388
150.887
151.412
151.97
152.573
153.235
153.969
154.792
155.724
156.791
158.035
159.528
161.389
163.839
167.239
171.882
175.568
178.248
180.117
181.34
182.032
182.273
182.12
181.618
180.802
179.699
178.336
176.737
174.925
172.925
170.761
168.457
166.035
163.515
160.917
158.254
155.54
152.785
152.428
154.883
157.36
159.846
162.32
164.753
167.109
169.352
171.444
173.35
175.037
176.474
177.629
178.471
178.963
179.058
178.701
177.816
176.301
173.991
170.584
165.364
156.161
152.004
149.496
147.713
146.344
145.255
144.379
143.676
143.124
142.713
142.441
142.306
142.304
142.425
142.653
142.967
143.345
143.768
144.222
144.698
145.194
145.715
146.269
146.869
147.525
148.253
149.065
149.977
151.012
152.203
153.611
155.355
157.721
161.561
170.002
174.71
177.729
179.742
181.041
181.778
182.05
181.919
181.435
180.632
179.541
178.189
176.6
174.799
172.81
170.657
168.365
165.955
163.448
160.862
158.212
155.511
152.77
145.155
143.968
142.52
141.216
140.107
139.18
138.414
137.792
137.304
136.947
136.72
136.622
136.648
136.788
137.027
137.346
137.726
138.148
138.598
139.069
139.559
140.072
140.617
141.204
141.845
142.551
143.332
144.197
145.158
146.229
147.426
148.76
150.186
151.337
136.79
136.383
135.591
134.716
133.886
133.145
132.509
131.982
131.569
131.271
131.091
131.031
131.085
131.244
131.496
131.822
132.203
132.622
133.067
133.53
134.01
134.511
135.04
135.608
136.224
136.897
137.631
138.43
139.294
140.217
141.184
142.149
142.998
143.455
129.564
129.407
128.964
128.394
127.797
127.231
126.725
126.299
125.963
125.727
125.596
125.573
125.655
125.833
126.096
126.426
126.806
127.22
127.657
128.109
128.575
129.059
129.567
130.11
130.693
131.323
132.002
132.726
133.487
134.268
135.039
135.745
136.291
136.533
123.019
122.961
122.709
122.34
121.921
121.503
121.117
120.785
120.526
120.35
120.267
120.28
120.388
120.583
120.854
121.185
121.56
121.966
122.39
122.827
123.275
123.738
124.221
124.733
125.278
125.861
126.48
127.129
127.793
128.451
129.07
129.604
129.987
130.148
116.981
116.971
116.827
116.59
116.303
116.003
115.718
115.473
115.284
115.166
115.128
115.174
115.304
115.512
115.786
116.114
116.482
116.874
117.282
117.7
118.126
118.563
119.018
119.495
120
120.534
121.093
121.669
122.247
122.803
123.31
123.729
124.019
124.141
111.364
111.379
111.3
111.151
110.959
110.75
110.55
110.379
110.253
110.186
110.188
110.264
110.412
110.628
110.902
111.223
111.577
111.952
112.34
112.735
113.135
113.545
113.968
114.409
114.872
115.357
115.859
116.368
116.871
117.345
117.767
118.108
118.34
118.441
106.111
106.14
106.102
106.013
105.889
105.752
105.619
105.51
105.438
105.416
105.452
105.551
105.712
105.932
106.201
106.51
106.847
107.201
107.564
107.933
108.306
108.686
109.076
109.48
109.901
110.339
110.787
111.238
111.676
112.084
112.441
112.726
112.919
113.006
101.18
101.216
101.205
101.157
101.083
101
100.921
100.862
100.835
100.85
100.914
101.031
101.201
101.419
101.679
101.971
102.287
102.616
102.953
103.293
103.637
103.985
104.341
104.709
105.091
105.484
105.884
106.282
106.666
107.02
107.326
107.569
107.734
107.812
96.5354
96.5746
96.5811
96.5613
96.5247
96.4825
96.4464
96.4276
96.4362
96.4804
96.5657
96.695
96.8676
97.0802
97.3266
97.5994
97.8905
98.1926
98.5004
98.8109
99.1237
99.4406
99.7642
100.097
100.441
100.793
101.15
101.503
101.84
102.149
102.416
102.626
102.771
102.842
92.1445
92.185
92.2032
92.204
92.1947
92.1838
92.1802
92.1928
92.2292
92.2955
92.3958
92.5318
92.7027
92.9055
93.1352
93.3856
93.6503
93.9237
94.2015
94.4817
94.764
95.0501
95.3423
95.6424
95.9513
96.2672
96.5855
96.8988
97.1973
97.4695
97.7036
97.889
98.0171
98.0833
87.9808
88.0215
88.0478
88.0636
88.0745
88.0872
88.1084
88.1447
88.2017
88.2835
88.393
88.5307
88.6959
88.8857
89.0961
89.3224
89.5597
89.8039
90.0518
90.3021
90.5549
90.8118
91.0745
91.3446
91.6223
91.9057
92.1905
92.47
92.7354
92.977
93.1847
93.3497
93.4652
93.5275
84.0219
84.0625
84.0946
84.1213
84.1473
84.1775
84.2171
84.2707
84.3421
84.4338
84.5473
84.6827
84.8387
85.0131
85.2027
85.4042
85.614
85.8294
86.0483
86.2701
86.4953
86.7251
86.961
87.204
87.454
87.709
87.9648
88.2153
88.4529
88.6689
88.8549
89.0033
89.1086
89.1679
80.2502
80.2907
80.327
80.3619
80.399
80.442
80.4948
80.5603
80.6407
80.7375
80.8508
80.9803
81.1247
81.2821
81.4504
81.6271
81.8103
81.9982
82.1899
82.3854
82.5852
82.7905
83.0025
83.2217
83.4475
83.6778
83.9087
84.1345
84.3485
84.5431
84.711
84.8457
84.9428
84.9996
76.6529
76.6933
76.7328
76.7737
76.8188
76.8708
76.9324
77.0052
77.0904
77.188
77.2978
77.4188
77.5498
77.6895
77.8364
77.9894
78.1474
78.31
78.4769
78.6486
78.8259
79.0096
79.2006
79.3991
79.604
79.8131
80.0226
80.2275
80.4214
80.5979
80.7505
80.8739
80.964
81.0188
73.2207
73.2612
73.3031
73.3483
73.3987
73.4566
73.5234
73.5998
73.6859
73.7812
73.8846
73.9951
74.1117
74.2334
74.3598
74.4905
74.6256
74.7653
74.9103
75.0611
75.2188
75.3839
75.557
75.7376
75.9246
76.1156
76.3069
76.4937
76.6705
76.8316
76.9713
77.0849
77.1692
77.2222
69.9478
69.9884
70.032
70.0798
70.1335
70.1945
70.2634
70.3401
70.4241
70.5142
70.6092
70.7079
70.8094
70.9136
71.0206
71.131
71.2456
71.3653
71.4913
71.6244
71.7655
71.9149
72.0728
72.2383
72.4101
72.5855
72.761
72.9324
73.0945
73.2423
73.3709
73.4762
73.5553
73.6068
66.8303
66.8709
66.9153
66.9645
67.0195
67.0812
67.1495
67.2238
67.3031
67.3859
67.4707
67.5566
67.6432
67.7306
67.8197
67.9119
68.0086
68.1113
68.2213
68.3396
68.4669
68.6032
68.7484
68.9012
69.0599
69.222
69.384
69.542
69.6913
69.8276
69.9466
70.0446
70.1193
70.1692
63.8654
63.9059
63.9504
63.9995
64.0541
64.1143
64.1797
64.2494
64.3218
64.3955
64.469
64.5416
64.6134
64.685
64.758
64.8342
64.9156
65.004
65.1009
65.2071
65.3232
65.4488
65.5834
65.7255
65.8731
66.0236
66.1739
66.3202
66.4586
66.5848
66.6954
66.7871
66.8577
66.9062
61.051
61.0909
61.1346
61.1825
61.2351
61.292
61.3525
61.4155
61.4794
61.5426