# vtk DataFile Version 3.0
Mesh_1
ASCII
DATASET UNSTRUCTURED_GRID
POINTS 4540 float
-50 -50 0
-50 50 0
50 -50 0
50 50 0
-50 -48.75 0
-50 -47.5 0
-50 -46.25 0
-50 -45 0
-50 -43.75 0
-50 -42.5 0
-50 -41.25 0
-50 -40 0
-50 -38.75 0
-50 -37.5 0
-50 -36.25 0
-50 -35 0
-50 -33.75 0
-50 -32.5 0
-50 -31.25 0
-50 -30 0
-50 -28.75 0
-50 26.25 0
-50 27.5 0
-50 28.75 0
-50 30 0
-50 31.25 0
-50 32.5 0
-50 33.75 0
-50 35 0
-50 36.25 0
-50 37.5 0
-50 38.75 0
-50 40 0
-50 41.25 0
-50 42.5 0
-50 43.75 0
-50 45 0
-50 46.25 0
-50 47.5 0
-50 48.75 0
-48.75 -50 0
-47.5 -50 0
-46.25 -50 0
-45 -50 0
-43.75 -50 0
-42.5 -50 0
-41.25 -50 0
-40 -50 0
-38.75 -50 0
-37.5 -50 0
-36.25 -50 0
-35 -50 0
-33.75 -50 0
-32.5 -50 0
-31.25 -50 0
-30 -50 0
-28.75 -50 0
-27.5 -50 0
-26.25 -50 0
-25 -50 0
-23.75 -50 0
-22.5 -50 0
-21.25 -50 0
-20 -50 0
-18.75 -50 0
-17.5 -50 0
-16.25 -50 0
-15 -50 0
-13.75 -50 0
-12.5 -50 0
-11.25 -50 0
-10 -50 0
-8.75 -50 0
-7.5 -50 0
-6.25 -50 0
-5 -50 0
-3.75 -50 0
-2.5 -50 0
-1.25 -50 0
0 -50 0
1.25 -50 0
2.5 -50 0
3.75 -50 0
5 -50 0
6.25 -50 0
7.5 -50 0
8.75 -50 0
10 -50 0
11.25 -50 0
12.5 -50 0
13.75 -50 0
15 -50 0
16.25 -50 0
17.5 -50 0
18.75 -50 0
20 -50 0
21.25 -50 0
22.5 -50 0
23.75 -50 0
25 -50 0
26.25 -50 0
27.5 -50 0
28.75 -50 0
30 -50 0
31.25 -50 0
32.5 -50 0
33.75 -50 0
35 -50 0
36.25 -50 0
37.5 -50 0
38.75 -50 0
40 -50 0
41.25 -50 0
42.5 -50 0
43.75 -50 0
45 -50 0
46.25 -50 0
47.5 -50 0
48.75 -50 0
50 -48.75 0
50 -47.5 0
50 -46.25 0
50 -45 0
50 -43.75 0
50 -42.5 0
50 -41.25 0
50 -40 0
50 -38.75 0
50 -37.5 0
50 -36.25 0
50 -35 0
50 -33.75 0
50 -32.5 0
50 -31.25 0
50 -30 0
50 -28.75 0
50 26.25 0
50 27.5 0
50 28.75 0
50 30 0
50 31.25 0
50 32.5 0
50 33.75 0
50 35 0
50 36.25 0
50 37.5 0
50 38.75 0
50 40 0
50 41.25 0
50 42.5 0
50 43.75 0
50 45 0
50 46.25 0
50 47.5 0
50 48.75 0
-48.75 50 0
-47.5 50 0
-46.25 50 0
-45 50 0
-43.75 50 0
-42.5 50 0
-41.25 50 0
-40 50 0
-38.75 50 0
-37.5 50 0
-36.25 50 0
-35 50 0
-33.75 50 0
-32.5 50 0
-31.25 50 0
-30 50 0
-28.75 50 0
-27.5 50 0
-26.25 50 0
-25 50 0
-23.75 50 0
-22.5 50 0
-21.25 50 0
-20 50 0
-18.75 50 0
-17.5 50 0
-16.25 50 0
-15 50 0
-13.75 50 0
-12.5 50 0
-11.25 50 0
-10 50 0
-8.75 50 0
-7.5 50 0
-6.25 50 0
-5 50 0
-3.75 50 0
-2.5 50 0
-1.25 50 0
0 50 0
1.25 50 0
2.5 50 0
3.75 50 0
5 50 0
6.25 50 0
7.5 50 0
8.75 50 0
10 50 0
11.25 50 0
12.5 50 0
13.75 50 0
15 50 0
16.25 50 0
17.5 50 0
18.75 50 0
20 50 0
21.25 50 0
22.5 50 0
23.75 50 0
25 50 0
26.25 50 0
27.5 50 0
28.75 50 0
30 50 0
31.25 50 0
32.5 50 0
33.75 50 0
35 50 0
36.25 50 0
37.5 50 0
38.75 50 0
40 50 0
41.25 50 0
42.5 50 0
43.75 50 0
45 50 0
46.25 50 0
47.5 50 0
48.75 50 0
-48.75 48.75 0
-47.5 48.75 0
-46.25 48.75 0
-45 48.75 0
-43.75 48.75 0
-42.5 48.75 0
-41.25 48.75 0
-40 48.75 0
-38.75 48.75 0
-37.5 48.75 0
-36.25 48.75 0
-35 48.75 0
-33.75 48.75 0
-32.5 48.75 0
-31.25 48.75 0
-30 48.75 0
-28.75 48.75 0
-27.5 48.75 0
-26.25 48.75 0
-25 48.75 0
-23.75 48.75 0
-22.5 48.75 0
-21.25 48.75 0
-20 48.75 0
-18.75 48.75 0
-17.5 48.75 0
-16.25 48.75 0
-15 48.75 0
-13.75 48.75 0
-12.5 48.75 0
-11.25 48.75 0
-10 48.75 0
-8.75 48.75 0
-7.5 48.75 0
-6.25 48.75 0
-5 48.75 0
-3.75 48.75 0
-2.5 48.75 0
-1.25 48.75 0
0 48.75 0
1.25 48.75 0
2.5 48.75 0
3.75 48.75 0
5 48.75 0
6.25 48.75 0
7.5 48.75 0
8.75 48.75 0
10 48.75 0
11.25 48.75 0
12.5 48.75 0
13.75 48.75 0
15 48.75 0
16.25 48.75 0
17.5 48.75 0
18.75 48.75 0
20 48.75 0
21.25 48.75 0
22.5 48.75 0
23.75 48.75 0
25 48.75 0
26.25 48.75 0
27.5 48.75 0
28.75 48.75 0
30 48.75 0
31.25 48.75 0
32.5 48.75 0
33.75 48.75 0
35 48.75 0
36.25 48.75 0
37.5 48.75 0
38.75 48.75 0
40 48.75 0
41.25 48.75 0
42.5 48.75 0
43.75 48.75 0
45 48.75 0
46.25 48.75 0
47.5 48.75 0
48.75 48.75 0
-48.75 47.5 0
-47.5 47.5 0
-46.25 47.5 0
-45 47.5 0
-43.75 47.5 0
-42.5 47.5 0
-41.25 47.5 0
-40 47.5 0
-38.75 47.5 0
-37.5 47.5 0
-36.25 47.5 0
-35 47.5 0
-33.75 47.5 0
-32.5 47.5 0
-31.25 47.5 0
-30 47.5 0
-28.75 47.5 0
-27.5 47.5 0
-26.25 47.5 0
-25 47.5 0
-23.75 47.5 0
-22.5 47.5 0
-21.25 47.5 0
-20 47.5 0
-18.75 47.5 0
-17.5 47.5 0
-16.25 47.5 0
-15 47.5 0
-13.75 47.5 0
-12.5 47.5 0
-11.25 47.5 0
-10 47.5 0
-8.75 47.5 0
-7.5 47.5 0
-6.25 47.5 0
-5 47.5 0
-3.75 47.5 0
-2.5 47.5 0
-1.25 47.5 0
0 47.5 0
1.25 47.5 0
2.5 47.5 0
3.75 47.5 0
5 47.5 0
6.25 47.5 0
7.5 47.5 0
8.75 47.5 0
10 47.5 0
11.25 47.5 0
12.5 47.5 0
13.75 47.5 0
15 47.5 0
16.25 47.5 0
17.5 47.5 0
18.75 47.5 0
20 47.5 0
21.25 47.5 0
22.5 47.5 0
23.75 47.5 0
25 47.5 0
26.25 47.5 0
27.5 47.5 0
28.75 47.5 0
30 47.5 0
31.25 47.5 0
32.5 47.5 0
33.75 47.5 0
35 47.5 0
36.25 47.5 0
37.5 47.5 0
38.75 47.5 0
40 47.5 0
41.25 47.5 0
42.5 47.5 0
43.75 47.5 0
45 47.5 0
46.25 47.5 0
47.5 47.5 0
48.75 47.5 0
-48.75 46.25 0
-47.5 46.25 0
-46.25 46.25 0
-45 46.25 0
-43.75 46.25 0
-42.5 46.25 0
-41.25 46.25 0
-40 46.25 0
-38.75 46.25 0
-37.5 46.25 0
-36.25 46.25 0
-35 46.25 0
-33.75 46.25 0
-32.5 46.25 0
-31.25 46.25 0
-30 46.25 0
-28.75 46.25 0
-27.5 46.25 0
-26.25 46.25 0
-25 46.25 0
-23.75 46.25 0
-22.5 46.25 0
-21.25 46.25 0
-20 46.25 0
-18.75 46.25 0
-17.5 46.25 0
-16.25 46.25 0
-15 46.25 0
-13.75 46.25 0
-12.5 46.25 0
-11.25 46.25 0
-10 46.25 0
-8.75 46.25 0
-7.5 46.25 0
-6.25 46.25 0
-5 46.25 0
-3.75 46.25 0
-2.5 46.25 0
-1.25 46.25 0
0 46.25 0
1.25 46.25 0
2.5 46.25 0
3.75 46.25 0
5 46.25 0
6.25 46.25 0
7.5 46.25 0
8.75 46.25 0
10 46.25 0
11.25 46.25 0
12.5 46.25 0
13.75 46.25 0
15 46.25 0
16.25 46.25 0
17.5 46.25 0
18.75 46.25 0
20 46.25 0
21.25 46.25 0
22.5 46.25 0
23.75 46.25 0
25 46.25 0
26.25 46.25 0
27.5 46.25 0
28.75 46.25 0
30 46.25 0
31.25 46.25 0
32.5 46.25 0
33.75 46.25 0
35 46.25 0
36.25 46.25 0
37.5 46.25 0
38.75 46.25 0
40 46.25 0
41.25 46.25 0
42.5 46.25 0
43.75 46.25 0
45 46.25 0
46.25 46.25 0
47.5 46.25 0
48.75 46.25 0
-48.75 45 0
-47.5 45 0
-46.25 45 0
-45 45 0
-43.75 45 0
-42.5 45 0
-41.25 45 0
-40 45 0
-38.75 45 0
-37.5 45 0
-36.25 45 0
-35 45 0
-33.75 45 0
-32.5 45 0
-31.25 45 0
-30 45 0
-28.75 45 0
-27.5 45 0
-26.25 45 0
-25 45 0
-23.75 45 0
-22.5 45 0
-21.25 45 0
-20 45 0
-18.75 45 0
-17.5 45 0
-16.25 45 0
-15 45 0
-13.75 45 0
-12.5 45 0
-11.25 45 0
-10 45 0
-8.75 45 0
-7.5 45 0
-6.25 45 0
-5 45 0
-3.75 45 0
-2.5 45 0
-1.25 45 0
0 45 0
1.25 45 0
2.5 45 0
3.75 45 0
5 45 0
6.25 45 0
7.5 45 0
8.75 45 0
10 45 0
11.25 45 0
12.5 45 0
13.75 45 0
15 45 0
16.25 45 0
17.5 45 0
18.75 45 0
20 45 0
21.25 45 0
22.5 45 0
23.75 45 0
25 45 0
26.25 45 0
27.5 45 0
28.75 45 0
30 45 0
31.25 45 0
32.5 45 0
33.75 45 0
35 45 0
36.25 45 0
37.5 45 0
38.75 45 0
40 45 0
41.25 45 0
42.5 45 0
43.75 45 0
45 45 0
46.25 45 0
47.5 45 0
48.75 45 0
-48.75 43.75 0
-47.5 43.75 0
-46.25 43.75 0
-45 43.75 0
-43.75 43.75 0
-42.5 43.75 0
-41.25 43.75 0
-40 43.75 0
-38.75 43.75 0
-37.5 43.75 0
-36.25 43.75 0
-35 43.75 0
-33.75 43.75 0
-32.5 43.75 0
-31.25 43.75 0
-30 43.75 0
-28.75 43.75 0
-27.5 43.75 0
-26.25 43.75 0
-25 43.75 0
-23.75 43.75 0
-22.5 43.75 0
-21.25 43.75 0
-20 43.75 0
-18.75 43.75 0
-17.5 43.75 0
-16.25 43.75 0
-15 43.75 0
-13.75 43.75 0
-12.5 43.75 0
-11.25 43.75 0
-10 43.75 0
-8.75 43.75 0
-7.5 43.75 0
-6.25 43.75 0
-5 43.75 0
-3.75 43.75 0
-2.5 43.75 0
-1.25 43.75 0
0 43.75 0
1.25 43.75 0
2.5 43.75 0
3.75 43.75 0
5 43.75 0
6.25 43.75 0
7.5 43.75 0
8.75 43.75 0
10 43.75 0
11.25 43.75 0
12.5 43.75 0
13.75 43.75 0
15 43.75 0
16.25 43.75 0
17.5 43.75 0
18.75 43.75 0
20 43.75 0
21.25 43.75 0
22.5 43.75 0
23.75 43.75 0
25 43.75 0
26.25 43.75 0
27.5 43.75 0
28.75 43.75 0
30 43.75 0
31.25 43.75 0
32.5 43.75 0
33.75 43.75 0
35 43.75 0
36.25 43.75 0
37.5 43.75 0
38.75 43.75 0
40 43.75 0
41.25 43.75 0
42.5 43.75 0
43.75 43.75 0
45 43.75 0
46.25 43.75 0
47.5 43.75 0
48.75 43.75 0
-48.75 42.5 0
-47.5 42.5 0
-46.25 42.5 0
-45 42.5 0
-43.75 42.5 0
-42.5 42.5 0
-41.25 42.5 0
-40 42.5 0
-38.75 42.5 0
-37.5 42.5 0
-36.25 42.5 0
-35 42.5 0
-33.75 42.5 0
-32.5 42.5 0
-31.25 42.5 0
-30 42.5 0
-28.75 42.5 0
-27.5 42.5 0
-26.25 42.5 0
-25 42.5 0
-23.75 42.5 0
-22.5 42.5 0
-21.25 42.5 0
-20 42.5 0
-18.75 42.5 0
-17.5 42.5 0
-16.25 42.5 0
-15 42.5 0
-13.75 42.5 0
-12.5 42.5 0
-11.25 42.5 0
-10 42.5 0
-8.75 42.5 0
-7.5 42.5 0
-6.25 42.5 0
-5 42.5 0
-3.75 42.5 0
-2.5 42.5 0
-1.25 42.5 0
0 42.5 0
1.25 42.5 0
2.5 42.5 0
3.75 42.5 0
5 42.5 0
6.25 42.5 0
7.5 42.5 0
8.75 42.5 0
10 42.5 0
11.25 42.5 0
12.5 42.5 0
13.75 42.5 0
15 42.5 0
16.25 42.5 0
17.5 42.5 0
18.75 42.5 0
20 42.5 0
21.25 42.5 0
22.5 42.5 0
23.75 42.5 0
25 42.5 0
26.25 42.5 0
27.5 42.5 0
28.75 42.5 0
30 42.5 0
31.25 42.5 0
32.5 42.5 0
33.75 42.5 0
35 42.5 0
36.25 42.5 0
37.5 42.5 0
38.75 42.5 0
40 42.5 0
41.25 42.5 0
42.5 42.5 0
43.75 42.5 0
45 42.5 0
46.25 42.5 0
47.5 42.5 0
48.75 42.5 0
-48.75 41.25 0
-47.5 41.25 0
-46.25 41.25 0
-45 41.25 0
-43.75 41.25 0
-42.5 41.25 0
-41.25 41.25 0
-40 41.25 0
-38.75 41.25 0
-37.5 41.25 0
-36.25 41.25 0
-35 41.25 0
-33.75 41.25 0
-32.5 41.25 0
-31.25 41.25 0
-30 41.25 0
-28.75 41.25 0
-27.5 41.25 0
-26.25 41.25 0
-25 41.25 0
-23.75 41.25 0
-22.5 41.25 0
-21.25 41.25 0
-20 41.25 0
-18.75 41.25 0
-17.5 41.25 0
-16.25 41.25 0
-15 41.25 0
-13.75 41.25 0
-12.5 41.25 0
-11.25 41.25 0
-10 41.25 0
-8.75 41.25 0
-7.5 41.25 0
-6.25 41.25 0
-5 41.25 0
-3.75 41.25 0
-2.5 41.25 0
-1.25 41.25 0
0 41.25 0
1.25 41.25 0
2.5 41.25 0
3.75 41.25 0
5 41.25 0
6.25 41.25 0
7.5 41.25 0
8.75 41.25 0
10 41.25 0
11.25 41.25 0
12.5 41.25 0
[...]
POINT_DATA 4540
SCALARS Temperature float 1
LOOKUP_TABLE default
50
300
50
300
150
150
150
150
150
150
150
150
150
150
150
150
150
150
150
150
150
150
150
150
150
150
150
150
150
150
150
150
150
150
150
150
150
150
150
150
50
50
50
50
50
50
50
50
50
50
50
50
50
50
50
50
50
50
50
50
50
50
50
50
50
50
50
50
50
50
50
50
50
50
50
50
50
50
50
50
50
50
50
50
50
50
50
50
50
50
50
50
50
50
50
50
50
50
50
50
50
50
50
50
50
50
50
50
50
50
50
50
50
50
50
50
50
50
50
150
150
150
150
150
150
150
150
150
150
150
150
150
150
150
150
150
150
150
150
150
150
150
150
150
150
150
150
150
150
150
150
150
150
150
150
300
300
300
300
300
300
300
300
300
300
300
300
300
300
300
300
300
300
300
300
300
300
300
300
300
300
300
300
300
300
300
300
300
300
300
300
300
300
300
300
300
300
300
300
300
300
300
300
300
300
300
300
300
300
300
300
300
300
300
300
300
300
300
300
300
300
300
300
300
300
300
300
300
300
300
300
300
300
300
224.594
253.853
267.429
274.72
279.106
281.974
283.963
285.402
286.47
287.278
287.893
288.361
288.713
288.974
289.162
289.29
289.369
289.408
289.415
289.394
289.352
289.292
289.219
289.136
289.046
288.952
288.858
288.765
288.676
288.592
288.515
288.445
288.383
288.33
288.285
288.25
288.223
288.205
288.196
288.196
288.203
288.219
288.243
288.275
288.315
288.362
288.417
288.479
288.547
288.622
288.701
288.784
288.867
288.947
289.019
289.078
289.118
289.138
289.135
289.114
289.078
289.031
288.976
288.908
288.818
288.691
288.505
288.237
287.853
287.316
286.572
285.549
284.138
282.158
279.284
274.881
267.564
253.954
224.651
194.558
223.443
241.214
252.424
259.816
264.911
268.559
271.247
273.269
274.809
275.988
276.887
277.566
278.07
278.43
278.676
278.826
278.899
278.908
278.863
278.775
278.653
278.504
278.335
278.154
277.965
277.775
277.589
277.41
277.241
277.085
276.945
276.82
276.713
276.624
276.553
276.499
276.463
276.445
276.443
276.458
276.489
276.537
276.601
276.68
276.775
276.885
277.009
277.147
277.297
277.456
277.622
277.79
277.951
278.098
278.218
278.303
278.348
278.351
278.318
278.257
278.176
278.076
277.949
277.777
277.53
277.169
276.646
275.903
274.865
273.439
271.497
268.855
265.222
260.117
252.698
241.446
223.619
194.658
180.252
204.237
221.672
234.075
242.957
249.429
254.238
257.873
260.655
262.797
264.45
265.716
266.675
267.386
267.895
268.238
268.445
268.539
268.54
268.464
268.324
268.133
267.903
267.644
267.367
267.079
266.791
266.508
266.236
265.981
265.746
265.533
265.346
265.184
265.05
264.942
264.86
264.806
264.777
264.774
264.796
264.842
264.914
265.009
265.128
265.271
265.436
265.623
265.831
266.058
266.3
266.553
266.808
267.056
267.281
267.47
267.608
267.689
267.711
267.684
267.616
267.519
267.391
267.221
266.983
266.634
266.12
265.374
264.317
262.85
260.854
258.173
254.593
249.799
243.315
234.402
221.953
204.453
180.378
172.286
191.695
207.306
219.408
228.676
235.778
241.253
245.502
248.815
251.402
253.414
254.966
256.143
257.016
257.638
258.052
258.294
258.393
258.372
258.251
258.049
257.78
257.46
257.104
256.724
256.333
255.941
255.557
255.19
254.846
254.529
254.243
253.991
253.774
253.593
253.448
253.338
253.264
253.225
253.219
253.248
253.309
253.403
253.53
253.688
253.879
254.1
254.352
254.633
254.939
255.268
255.611
255.96
256.299
256.612
256.878
257.082
257.215
257.23
257.207
257.168
257.1
256.987
256.808
256.532
256.108
255.474
254.549
253.241
251.439
249.013
245.806
241.611
236.149
229.035
219.738
207.594
191.922
172.422
167.282
183.079
196.611
207.759
216.754
223.945
229.676
234.238
237.862
240.731
242.983
244.73
246.059
247.041
247.735
248.188
248.439
248.521
248.459
248.277
247.997
247.638
247.218
246.754
246.263
245.761
245.259
244.77
244.303
243.867
243.466
243.105
242.787
242.513
242.285
242.101
241.963
241.868
241.817
241.809
241.842
241.917
242.034
242.191
242.389
242.628
242.907
243.225
243.58
243.97
244.389
244.829
245.279
245.719
246.126
246.477
246.76
246.722
246.654
246.707
246.819
246.9
246.893
246.77
246.502
246.044
245.33
244.278
242.79
240.755
238.048
234.524
230.009
224.287
217.083
208.064
196.884
183.301
167.419
163.853
176.866
188.473
198.455
206.839
213.777
219.467
224.1
227.846
230.85
233.229
235.083
236.495
237.533
238.256
238.712
238.941
238.978
238.851
238.589
238.213
237.747
237.212
236.629
236.017
235.394
234.775
234.175
233.605
233.072
232.585
232.147
231.761
231.43
231.153
230.931
230.762
230.647
230.583
230.57
230.608
230.695
230.833
231.02
231.257
231.545
231.882
232.268
232.702
233.179
233.694
234.236
234.792
235.333
235.834
236.281
236.163
235.843
235.821
236.14
236.583
236.955
237.16
237.169
236.965
236.517
235.769
234.644
233.05
230.883
228.031
224.375
219.779
214.093
207.141
198.739
188.732
177.082
163.989
161.353
172.199
182.136
190.949
198.579
205.072
210.525
215.054
218.774
221.79
224.199
226.082
227.512
228.554
229.26
229.68
229.852
229.814
229.596
229.226
228.733
228.141
227.475
226.758
226.013
225.26
224.517
223.8
223.121
222.49
221.913
221.397
220.943
220.553
220.227
219.965
219.766
219.628
219.55
219.53
219.569
219.666
219.823
220.039
220.315
220.652
221.049
221.507
222.022
222.589
223.201
223.847
224.503
225.142
225.747
225.794
225.277
224.907
225.136
225.849
226.704
227.428
227.898
228.085
227.987
227.589
226.851
225.706
224.075
221.867
218.989
215.347
210.847
205.393
198.885
191.236
182.4
172.42
161.493
159.45
168.578
177.098
184.825
191.672
197.629
202.73
207.038
210.624
213.561
215.919
217.764
219.157
220.152
220.798
221.14
221.219
221.07
220.728
220.225
219.588
218.847
218.03
217.164
216.272
215.379
214.504
213.665
212.873
212.141
211.474
210.878
210.355
209.907
209.532
209.23
208.999
208.836
208.74
208.709
208.745
208.849
209.021
209.265
209.58
209.968
210.428
210.96
211.557
212.211
212.916
213.659
214.415
215.165
215.627
215.409
214.855
214.695
215.247
216.314
217.508
218.53
219.241
219.607
219.631
219.311
218.617
217.5
215.892
213.718
210.907
207.389
203.104
197.997
192.023
185.152
177.395
168.823
159.602
157.957
165.703
173.029
179.784
185.877
191.27
195.963
199.981
203.363
206.154
208.402
210.155
211.461
212.363
212.905
213.129
213.075
212.779
212.279
211.609
210.8
209.885
208.896
207.86
206.808
205.764
204.749
203.781
202.875
202.039
201.282
200.607
200.016
199.51
199.086
198.743
198.477
198.286
198.167
198.12
198.148
198.253
198.439
198.709
199.064
199.504
200.029
200.635
201.309
202.045
202.839
203.682
204.556
205.386
205.837
205.728
205.475
205.663
206.506
207.801
209.195
210.405
211.289
211.802
211.945
211.715
211.094
210.041
208.503
206.424
203.747
200.428
196.429
191.727
186.31
180.184
173.384
165.988
158.129
156.764
163.384
169.707
175.609
181.006
185.849
190.118
193.813
196.95
199.551
201.646
203.266
204.443
205.212
205.61
205.675
205.448
204.968
204.274
203.401
202.388
201.269
200.08
198.854
197.624
196.417
195.254
194.155
193.131
192.193
191.347
190.595
189.938
189.374
188.902
188.516
188.212
187.986
187.838
187.768
187.782
187.885
188.082
188.377
188.772
189.266
189.857
190.532
191.279
192.096
192.988
193.951
194.974
195.951
196.62
196.911
197.152
197.752
198.85
200.284
201.775
203.085
204.078
204.706
204.955
204.823
204.292
203.331
201.9
199.956
197.459
194.381
190.703
186.423
181.549
176.105
170.138
163.72
156.96
155.799
161.499
166.981
172.147
176.921
181.25
185.105
188.47
191.344
193.732
195.646
197.101
198.116
198.717
198.935
198.805
198.369
197.666
196.739
195.628
194.372
193.013
191.591
190.148
188.72
187.335
186.017
184.782
183.642
182.604
181.671
180.845
180.124
179.505
178.983
178.552
178.206
177.94
177.755
177.656
177.651
177.748
177.954
178.273
178.709
179.258
179.911
180.654
181.477
182.386
183.394
184.506
185.715
186.928
187.966
188.791
189.605
190.654
192.018
193.583
195.145
196.522
197.599
198.322
198.673
198.642
198.215
197.365
196.064
194.28
191.986
189.168
185.82
181.952
177.583
172.747
167.494
161.889
156.021
155.017
159.965
164.749
169.288
173.516
177.382
180.851
183.898
186.508
188.674
190.391
191.66
192.49
192.896
192.905
192.55
191.872
190.913
189.716
188.323
186.781
185.135
183.439
181.741
180.087
178.507
177.025
175.654
174.399
173.265
172.25
171.354
170.572
169.899
169.327
168.848
168.455
168.144
167.918
167.786
167.758
167.846
168.059
168.403
168.877
169.478
170.192
171.004
171.912
172.929
174.074
175.362
176.791
178.297
179.767
181.158
182.56
184.089
185.77
187.517
189.189
190.654
191.821
192.644
193.099
193.176
192.86
192.134
190.974
189.36
187.277
184.719
181.689
178.204
174.29
169.985
165.337
160.405
155.264
154.388
158.726
162.936
166.951
170.713
174.173
177.295
180.048
182.407
184.353
185.868
186.942
187.573
187.769
187.551
186.951
186.008
184.763
183.26
181.542
179.656
177.663
175.629
173.626
171.709
169.914
168.259
166.749
165.384
164.159
163.069
162.107
161.268
160.542
159.919
159.39
158.948
158.59
158.321
158.154
158.103
158.181
158.4
158.764
159.273
159.921
160.693
161.577
162.578
163.713
165.01
166.49
168.164
169.996
171.915
173.871
175.865
177.91
179.977
181.987
183.839
185.441
186.729
187.667
188.236
188.426
188.227
187.626
186.61
185.166
183.287
180.973
178.236
175.095
171.579
167.727
163.584
159.205
154.653
153.89
157.739
161.486
165.073
168.447
171.564
174.386
176.877
179.007
180.746
182.066
182.947
183.378
183.361
182.912
182.06
180.84
179.291
177.449
175.354
173.056
170.626
168.164
165.779
163.55
161.514
159.678
158.033
156.564
155.256
154.098
153.076
152.183
151.405
150.733
150.155
149.664
149.261
148.952
148.752
148.678
148.747
148.968
149.348
149.885
150.571
151.395
152.349
153.441
154.696
156.147
157.826
159.757
161.934
164.318
166.852
169.472
172.093
174.626
176.985
179.091
180.885
182.327
183.398
184.089
184.395
184.312
183.834
182.954
181.669
179.976
177.883
175.403
172.559
169.381
165.906
162.178
158.246
154.166
153.504
156.975
160.359
163.605
166.668
169.505
172.078
174.348
176.278
177.833
178.975
179.678
179.921
179.703
179.035
177.94
176.449
174.588
172.383
169.858
167.054
164.058
161.025
158.15
155.547
153.246
151.228
149.457
147.897
146.518
145.301
144.227
143.283
142.459
141.74
141.116
140.581
140.137
139.794
139.567
139.474
139.532
139.753
140.141
140.694
141.407
142.271
143.284
144.457
145.82
147.412
149.279
151.465
153.999
156.878
160.051
163.39
166.69
169.786
172.573
174.994
177.02
178.641
179.857
180.672
181.09
181.116
180.751
179.994
178.848
177.317
175.41
173.146
170.547
167.644
164.473
161.075
157.496
153.787
153.218
156.407
159.519
162.509
165.335
167.956
170.333
172.426
174.195
175.596
176.588
177.138
177.221
176.829
175.971
174.662
172.923
170.764
168.187
165.181
161.759
158.003
154.16
150.638
147.598
145.024
142.84
140.966
139.337
137.907
136.644
135.527
134.542
133.676
132.916
132.253
131.683
131.208
130.838
130.59
130.482
130.53
130.745
131.132
131.69
132.415
133.302
134.354
135.586
137.031
138.735
140.759
143.174
146.056
149.467
153.397
157.661
161.814
165.583
168.863
171.635
173.911
175.716
177.073
178.003
178.523
178.644
178.374
177.719
176.686
175.284
173.527
171.432
169.025
166.334
163.395
160.248
156.935
153.503
153.022
156.018
158.944
161.756
164.416
166.885
169.123
171.088
172.736
174.022
174.901
175.334
175.296
174.773
173.77
172.295
170.355
167.94
165.013
161.507
157.347
152.54
147.425
143.049
139.543
136.739
134.444
132.516
130.856
129.401
128.113
126.968
125.953
125.055
124.264
123.572
122.976
122.479
122.093
121.831
121.712
121.749
121.954
122.33
122.88
123.6
124.491
125.558
126.819
128.308
130.076
132.195
134.769
137.938
141.881
146.748
152.376
157.655
162.209
166.009
169.124
171.633
173.601
175.079
176.105
176.705
176.899
176.7
176.121
175.172
173.864
172.213
170.239
167.967
165.426
162.649
159.676
156.548
153.307
152.911
155.796
158.615
161.326
163.891
166.271
168.426
170.314
171.89
173.105
173.913
174.275
174.163
173.563
172.473
170.897
168.829
166.237
163.043
159.096
154.154
147.91
140.422
135.011
131.165
128.282
125.995
124.092
122.454
121.011
119.724
118.572
117.542
116.626
115.816
115.107
114.498
113.991
113.597
113.329
113.202
113.229
113.418
113.776
114.305
115.005
115.879
116.935
118.19
119.675
121.44
123.559
126.156
129.434
133.752
139.705
147.794
154.569
159.939
164.196
167.583
170.262
172.346
173.906
174.994
175.645
175.885
175.73
175.196
174.296
173.043
171.455
169.551
167.357
164.903
162.221
159.348
156.325
153.194
152.88
155.735
158.525
161.208
163.747
166.102
168.233
170.097
171.648
172.84
173.625
173.965
173.834
173.215
172.107
170.508
168.405
165.755
162.456
158.298
152.846
145.059
131.829
125.853
122.227
119.599
117.501
115.729
114.177
112.789
111.534
110.397
109.371
108.453
107.64
106.928
106.317
105.812
105.419
105.151
105.02
105.035
105.207
105.54
106.038
106.705
107.544
108.563
109.776
111.207
112.892
114.891
117.305
120.327
124.415
130.931
144.896
153.249
159.141
163.616
167.114
169.859
171.985
173.574
174.683
175.351
175.604
175.462
174.94
174.053
172.815
171.243
169.359
167.187
164.757
162.101
159.256
156.263
153.163
116.486
114.818
112.73
110.794
109.068
107.52
106.111
104.816
103.622
102.524
101.525
100.624
99.8226
99.1217
98.5223
98.0278
97.6447
97.3817
97.2486
97.2542
97.4062
97.7103
98.1714
98.7938
99.5821
100.542
101.682
103.014
104.554
106.325
108.355
110.655
113.134
115.158
105.254
104.708
103.558
102.231
100.894
99.5995
98.3628
97.1877
96.079
95.0437
94.0897
93.2241
92.4516
91.7756
91.1985
90.7238
90.3565
90.1032
89.9712
89.9678
90.0997
90.3728
90.7923
91.3632
92.0894
92.9736
94.0174
95.2201
96.5784
98.0818
99.7014
101.359
102.854
103.714
95.925
95.7282
95.0698
94.1656
93.15
92.0933
91.0324
89.9895
88.982
88.0259
87.135
86.3209
85.5917
84.9528
84.408
83.9605
83.6143
83.3743
83.246
83.2351
83.3475
83.5888
83.9646
84.4792
85.1353
85.9325
86.8662
87.9262
89.0945
90.3406
91.612
92.8147
93.7859
94.2802
87.806
87.7404
87.3407
86.7108
85.9379
85.0821
84.1843
83.2739
82.3754
81.5097
80.695
79.9454
79.2714
78.68
78.1755
77.7613
77.4406
77.2169
77.0943
77.0774
77.1715
77.3815
77.7126
78.1684
78.7501
79.4545
80.2727
81.1883
82.1755
83.1963
84.1947
85.0899
85.7723
86.118
80.6065
80.5957
80.3379
79.8841
79.2878
78.5941
77.8397
77.0549
76.2661
75.4966
74.7661
74.0901
73.4801
72.9437
72.4857
72.1094
71.8173
71.6122
71.4972
71.476
71.553
71.7328
72.0195
72.416
72.9218
73.5321
74.2353
75.0125
75.8354
76.6658
77.4538
78.1369
78.644
78.9098
74.1513
74.1626
73.9856
73.6464
73.1779
72.6125
71.9806
71.3103
70.6274
69.9547
69.312
68.7146
68.1739
67.6974
67.29
66.9546
66.6934
66.5086
66.4027
66.3787
66.4403
66.5912
66.8348
67.1729
67.604
68.1222
68.7151
69.3636
70.0408
70.7119
71.3357
71.8655
72.2547
72.4666
68.3037
68.3214
68.1919
67.9294
67.5544
67.0903
66.562
65.9939
65.4097
64.831
64.2757
63.7582
63.289
62.8748
62.52
62.2272
61.9982
61.8349
61.7392
61.7137
61.7613
61.8851
62.0874
62.3692
62.7282
63.1584
63.6482
64.1798
64.7292
65.267
65.76
66.1737
66.4768
66.647
62.947
62.964
62.8639
62.6547
62.3499
61.9668
61.5256
61.0476
60.5539
60.0635
59.5925
59.1534
58.7552
58.4034
58.1013
57.8512
57.6548
57.5135
57.429
57.4032
57.4384
57.5368
57.6997
57.9272
58.2174
58.565
58.96
59.387
59.8256
60.2516
60.6388
60.9616
61.1984
61.3349
57.9835
57.9976
57.9173
57.7474
57.4971
57.18
56.8128
56.4139
56.0018
55.5931
55.2015
54.8374
54.5076
54.2153
53.9632
53.754
53.5896
53.4707
53.3985
53.374
53.3985
53.4727
53.5969
53.7715
53.9961
54.2671
54.5767
54.9119
55.2558
55.5886
55.8899
56.1406
56.3255
56.4351
53.3364
53.3484
53.2836
53.1448
52.9388
52.6768
52.3732
52.0439
51.7051
51.371
51.0531
50.7587
50.4902
50.2497
50.0417
49.8705
49.7373
49.642
49.5843
49.5636
49.5786
49.6284
49.7135
49.8364
49.9992
50.2008
50.4355
50.6922
50.9568
51.2132
51.4453
51.6392
51.7841
51.8735
48.9525
48.9651
48.9142
48.8017
48.6334
48.4187
48.1705
47.9029
47.6299
47.3636
47.1117
46.8752
46.654
46.454
46.2837
46.148
46.0472
45.9788
45.9394
45.9246
45.9301
45.9544
46.0001
46.0733
46.1797
46.3207
46.4919
46.6839
46.8841
47.0793
47.2571
47.4075
47.5227
47.5983
44.8025
44.8187
44.7816
44.6928
44.5576
44.3845
44.1852
43.9724
43.7585
43.5509
43.3496
43.1518
42.962
42.7929
42.6564
42.557
42.4921
42.455
42.4368
42.4285
42.4233
42.421
42.4284
42.4561
42.5135
42.604
42.7239
42.8644
43.0144
43.1625
43.2993
43.4176
43.5123
43.5802
40.8791
40.9017
40.8787
40.8119
40.7063
40.5702
40.4144
40.2504
40.0857
39.9199
39.7479
39.5707
39.4014
39.2594
39.1575
39.0978
39.0727
39.0692
39.0721
39.0681
39.0502
39.0212
38.9931
38.9815
38.9987
39.0493
39.1299
39.2319
39.3445
39.4582
39.5656
39.662
39.7438
39.8088
37.1928
37.2238
37.2148
37.1682
37.0892
36.9858
36.8682
36.7439
36.6127
36.4685
36.3082
36.1418
35.9911
35.8784
35.8149
35.7977
35.8126
35.8399
35.8592
35.8548
35.8214
35.7664
35.707
35.6632
35.6494
35.6709
35.7238
35.7989
35.886
35.9764
36.0646
36.1471
36.2218
36.2871
33.7646
33.8044
33.8085
33.7799
33.7241
33.6491
33.5622
33.4647
33.3504
33.2132
33.0573
32.9017
32.7737
32.6948
32.6716
32.6949
32.7443
32.7944
32.8216
32.8103
32.7584
32.6783
32.5924
32.5238
32.4883
32.4908
32.5264
32.5854
32.6573
32.734
32.811
32.8859
32.9575
33.0244
30.6173
30.6644
30.6795
30.6661
30.6297
30.5771
30.5115
30.4287
30.3208
30.1859
30.0362
29.8972
29.7968
29.753
29.7667
29.8227
29.8959
29.9574
29.9826
29.9577
29.8848
29.7815
29.6742
29.5882
29.5395
29.5321
29.5597
29.6115
29.6766
29.7473
29.8193
29.891
29.9615
30.0297
27.7662
27.8181
27.8413
27.8395
27.8179
27.7809
27.7281
27.6527
27.5484
27.4186
27.2812
27.164
27.0926
27.08
27.1218
27.1988
27.2829
27.344
27.3584
27.3152
27.2211
27.098
26.9753
26.8791
26.8247
26.8145
26.841
26.8922
26.9568
27.0267
27.0979
27.1688
27.2388
27.3072
25.2148
25.2681
25.2961
25.302
25.29
25.2625
25.2169
25.1464
25.0476
24.9282
24.8085
24.715
24.6693
24.6797
24.7382
24.8235
24.9065
24.9581
24.9564
24.8943
24.7823
24.6452
24.5138
24.4138
24.3593
24.3512
24.3807
24.4352
24.5025
24.5744
24.6466
24.7177
24.7869
24.8539
22.9528
23.0046
23.0339
23.0436
23.0367